40
PES calculation step 1
Ru       -3.723833      -0.103893       4.090474
N        -2.306648      -0.164447       5.006092
O        -1.348066      -0.167352       5.632356
N        -3.977432      -2.085828       3.823049
O        -5.038869      -0.099913       5.607133
O        -3.854223       1.890565       4.001258
N        -2.801645      -0.228831       2.304717
C        -2.497858      -1.623891       1.939923
H        -1.555969      -1.905241       2.422240
H        -2.379957      -1.729242       0.859206
C        -3.631648      -2.510933       2.453107
H        -4.517834      -2.372156       1.827319
H        -3.346214      -3.565504       2.432348
C        -2.390783       0.786131       1.608211
H        -1.872248       0.574582       0.671967
C        -4.492202      -2.891479       4.698818
H        -4.551178      -3.949621       4.438715
C        -5.005994      -2.514676       5.975373
C        -6.168204      -1.991389       8.460102
C        -5.346429      -3.567641       6.860781
C        -5.278037      -1.163376       6.362012
C        -5.873860      -0.940162       7.615205
C        -5.902654      -3.319449       8.091137
H        -5.145622      -4.586732       6.547659
H        -6.082347       0.083587       7.899888
H        -6.143471      -4.133519       8.761861
H        -6.615789      -1.783171       9.425030
C        -2.548940       2.160918       1.948416
C        -2.747640       4.914150       2.395037
C        -3.247507       2.645500       3.102519
C        -1.973213       3.096839       1.049621
C        -2.059221       4.449315       1.261910
C        -3.330061       4.038805       3.287322
H        -1.448596       2.714003       0.180704
H        -1.604911       5.146712       0.570711
H        -3.859505       4.397650       4.160976
H        -2.824153       5.979954       2.577806
O        -5.613045       0.084429       3.072737
H        -5.656000       1.009426       2.772915
H        -6.182075       0.054706       3.869462
>
40
PES calculation step 2
Ru       -3.569536      -0.141241       4.217676
N        -2.219581      -0.159145       5.116738
O        -1.625210      -0.113213       5.500795
N        -4.043583      -2.019621       3.839728
O        -5.019983      -0.054796       5.664704
O        -3.771401       1.917166       4.078452
N        -2.846276      -0.172563       2.331513
C        -2.583697      -1.562697       1.943207
H        -1.647584      -1.873907       2.407378
H        -2.481134      -1.651894       0.861288
C        -3.731317      -2.426489       2.461287
H        -4.617687      -2.252976       1.854812
H        -3.477972      -3.483071       2.419856
C        -2.442143       0.845076       1.635384
H        -1.956785       0.641004       0.685560
C        -4.552319      -2.830949       4.712940
H        -4.638130      -3.880635       4.441014
C        -5.030001      -2.467603       6.002950
C        -6.133575      -1.962670       8.512100
C        -5.374935      -3.524843       6.880100
C        -5.267019      -1.121243       6.411400
C        -5.835850      -0.906190       7.675636
C        -5.901916      -3.286095       8.122029
H        -5.202588      -4.540043       6.551484
H        -6.018025       0.114485       7.975761
H        -6.146074      -4.104427       8.785904
H        -6.557945      -1.762319       9.486266
C        -2.564802       2.214327       1.994720
C        -2.678104       4.951752       2.485667
C        -3.194786       2.682811       3.175441
C        -2.011833       3.157845       1.093008
C        -2.058923       4.503080       1.326470
C        -3.232637       4.067819       3.383019
H        -1.536898       2.787745       0.204171
H        -1.624696       5.207013       0.631615
H        -3.707981       4.413145       4.276892
H        -2.720985       6.011202       2.684311
O        -5.624453       0.214548       3.146022
H        -5.650511       1.136034       2.839393
H        -6.184161       0.199814       3.947235
>
40
PES calculation step 3
Ru       -3.415239      -0.178589       4.344879
N        -2.132513      -0.153842       5.227385
O        -1.902353      -0.059074       5.369234
N        -4.109734      -1.953414       3.856408
O        -5.001097      -0.009679       5.722275
O        -3.688578       1.943767       4.155645
N        -2.890906      -0.116295       2.358310
C        -2.669535      -1.501504       1.946491
H        -1.739199      -1.842573       2.392516
H        -2.582311      -1.574547       0.863369
C        -3.830986      -2.342046       2.469466
H        -4.717540      -2.133796       1.882304
H        -3.609730      -3.400638       2.407364
C        -2.493502       0.904022       1.662557
H        -2.041322       0.707426       0.699153
C        -4.612436      -2.770419       4.727062
H        -4.725082      -3.811649       4.443313
C        -5.054009      -2.420529       6.030526
C        -6.098947      -1.933951       8.564098
C        -5.403442      -3.482045       6.899419
C        -5.256001      -1.079110       6.460787
C        -5.797840      -0.872218       7.736067
C        -5.901179      -3.252741       8.152922
H        -5.259555      -4.493355       6.555309
H        -5.953703       0.145383       8.051633
H        -6.148676      -4.075336       8.809947
H        -6.500102      -1.741467       9.547502
C        -2.580665       2.267737       2.041024
C        -2.608568       4.989354       2.576296
C        -3.142065       2.720122       3.248362
C        -2.050453       3.218851       1.136394
C        -2.058624       4.556846       1.391030
C        -3.135213       4.096833       3.478716
H        -1.625199       2.861487       0.227638
H        -1.644481       5.267314       0.692518
H        -3.556457       4.428639       4.392809
H        -2.617816       6.042451       2.790816
O        -5.635861       0.344667       3.219307
H        -5.645022       1.262643       2.905871
H        -6.186248       0.344922       4.025007
>
40
PES calculation step 4
Ru       -3.260942      -0.215937       4.472081
N        -2.045446      -0.148540       5.338031
O        -2.179497      -0.004935       5.237672
N        -4.175885      -1.887207       3.873087
O        -4.982210       0.035439       5.779847
O        -3.605756       1.970368       4.232839
N        -2.935537      -0.060027       2.385106
C        -2.755374      -1.440310       1.949775
H        -1.830815      -1.811240       2.377654
H        -2.683488      -1.497199       0.865451
C        -3.930654      -2.257602       2.477646
H        -4.817393      -2.014616       1.909797
H        -3.741488      -3.318205       2.394872
C        -2.544862       0.962967       1.689730
H        -2.125858       0.773848       0.712747
C        -4.672553      -2.709890       4.741184
H        -4.812034      -3.742663       4.445613
C        -5.078016      -2.373456       6.058103
C        -6.064318      -1.905231       8.616096
C        -5.431948      -3.439246       6.918738
C        -5.244982      -1.036977       6.510175
C        -5.759830      -0.838246       7.796499
C        -5.900441      -3.219387       8.183814
H        -5.316521      -4.446666       6.559135
H        -5.889381       0.176282       8.127506
H        -6.151279      -4.046244       8.833989
H        -6.442258      -1.720615       9.608739
C        -2.596527       2.321146       2.087328
C        -2.539031       5.026956       2.666926
C        -3.089344       2.757432       3.321284
C        -2.089073       3.279856       1.179781
C        -2.058326       4.610611       1.455591
C        -3.037789       4.125847       3.574413
H        -1.713501       2.935230       0.251104
H        -1.664266       5.327615       0.753422
H        -3.404933       4.444134       4.508725
H        -2.514648       6.073699       2.897321
O        -5.647268       0.474785       3.292592
H        -5.639534       1.389251       2.972350
H        -6.188334       0.490030       4.102780
>
40
PES calculation step 5
Ru       -3.106645      -0.253285       4.599283
N        -1.958379      -0.143237       5.448678
O        -2.456641       0.049204       5.106111
N        -4.242036      -1.821000       3.889767
O        -4.963324       0.080556       5.837418
O        -3.522933       1.996969       4.310032
N        -2.980167      -0.003759       2.411902
C        -2.841213      -1.379116       1.953059
H        -1.922430      -1.779906       2.362792
H        -2.784665      -1.419852       0.867532
C        -4.030323      -2.173159       2.485825
H        -4.917246      -1.895436       1.937290
H        -3.873246      -3.235772       2.382380
C        -2.596221       1.021912       1.716903
H        -2.210395       0.840270       0.726340
C        -4.732670      -2.649360       4.755306
H        -4.898986      -3.673677       4.447912
C        -5.102023      -2.326382       6.085679
C        -6.029690      -1.876512       8.668094
C        -5.460455      -3.396448       6.938057
C        -5.233964      -0.994844       6.559563
C        -5.721820      -0.804274       7.856930
C        -5.899704      -3.186033       8.214706
H        -5.373488      -4.399978       6.562960
H        -5.825059       0.207180       8.203379
H        -6.153881      -4.017153       8.858032
H        -6.384415      -1.699763       9.669975
C        -2.612389       2.374556       2.133632
C        -2.469495       5.064558       2.757556
C        -3.036623       2.794743       3.394205
C        -2.127693       3.340862       1.223167
C        -2.058027       4.664377       1.520151
C        -2.940365       4.154861       3.670110
H        -1.801803       3.008972       0.274571
H        -1.684051       5.387916       0.814325
H        -3.253409       4.459629       4.624641
H        -2.411479       6.104947       3.003826
O        -5.658676       0.604904       3.365877
H        -5.634045       1.515860       3.038828
H        -6.190420       0.635138       4.180552
>
40
PES calculation step 6
Ru       -2.952349      -0.290634       4.726486
N        -1.871311      -0.137935       5.559324
O        -2.733784       0.103342       4.974550
N        -4.308186      -1.754793       3.906446
O        -4.944438       0.125673       5.894989
O        -3.440111       2.023569       4.387226
N        -3.024798       0.052510       2.438699
C        -2.927051      -1.317923       1.956344
H        -2.014045      -1.748572       2.347931
H        -2.885843      -1.342504       0.869614
C        -4.129992      -2.088715       2.494005
H        -5.017098      -1.776257       1.964782
H        -4.005004      -3.153338       2.369888
C        -2.647581       1.080858       1.744075
H        -2.294932       0.906693       0.739933
C        -4.792787      -2.588830       4.769429
H        -4.985937      -3.604691       4.450211
C        -5.126031      -2.279309       6.113256
C        -5.995061      -1.847793       8.720092
C        -5.488961      -3.353650       6.957375
C        -5.222946      -0.952710       6.608950
C        -5.683811      -0.770301       7.917361
C        -5.898966      -3.152679       8.245599
H        -5.430454      -4.353289       6.566785
H        -5.760736       0.238078       8.279251
H        -6.156484      -3.988061       8.882075
H        -6.326571      -1.678911       9.731211
C        -2.628252       2.427965       2.179937
C        -2.399959       5.102161       2.848185
C        -2.983902       2.832054       3.467127
C        -2.166314       3.401868       1.266554
C        -2.057729       4.718142       1.584711
C        -2.842942       4.183874       3.765808
H        -1.890104       3.082714       0.298038
H        -1.703837       5.448217       0.875229
H        -3.101885       4.475123       4.740558
H        -2.308311       6.136196       3.110331
O        -5.670084       0.735023       3.439161
H        -5.628556       1.642468       3.105306
H        -6.192507       0.780245       4.258325
>
40
PES calculation step 7
Ru       -2.798052      -0.327982       4.853688
N        -1.784244      -0.132632       5.669971
O        -3.010928       0.157481       4.842989
N        -4.374337      -1.688586       3.923126
O        -4.925552       0.170790       5.952560
O        -3.357288       2.050170       4.464419
N        -3.069428       0.108778       2.465495
C        -3.012890      -1.256729       1.959628
H        -2.105660      -1.717238       2.333069
H        -2.987020      -1.265157       0.871695
C        -4.229661      -2.004272       2.502184
H        -5.116951      -1.657077       1.992275
H        -4.136762      -3.070905       2.357396
C        -2.698940       1.139803       1.771248
H        -2.379469       0.973115       0.753526
C        -4.852904      -2.528300       4.783551
H        -5.072889      -3.535705       4.452510
C        -5.150038      -2.232235       6.140832
C        -5.960433      -1.819074       8.772090
C        -5.517468      -3.310852       6.976694
C        -5.211928      -0.910577       6.658338
C        -5.645801      -0.736329       7.977792
C        -5.898229      -3.119325       8.276491
H        -5.487421      -4.306601       6.570610
H        -5.696414       0.268976       8.355124
H        -6.159086      -3.958970       8.906118
H        -6.268728      -1.658059       9.792447
C        -2.644114       2.481375       2.226241
C        -2.330423       5.139763       2.938815
C        -2.931181       2.869365       3.540048
C        -2.204934       3.462874       1.309940
C        -2.057430       4.771908       1.649271
C        -2.745518       4.212888       3.861505
H        -1.978406       3.156456       0.321505
H        -1.723622       5.508518       0.936132
H        -2.950361       4.490618       4.856474
H        -2.205142       6.167444       3.216836
O        -5.681492       0.865142       3.512446
H        -5.623067       1.769077       3.171784
H        -6.194593       0.925353       4.336097
>
40
PES calculation step 8
Ru       -2.643755      -0.365330       4.980890
N        -1.697177      -0.127330       5.780617
O        -3.288072       0.211620       4.711427
N        -4.440488      -1.622379       3.939805
O        -4.906665       0.215908       6.010132
O        -3.274466       2.076771       4.541613
N        -3.114059       0.165046       2.492291
C        -3.098729      -1.195535       1.962912
H        -2.197276      -1.685905       2.318207
H        -3.088197      -1.187809       0.873777
C        -4.329329      -1.919828       2.510364
H        -5.216804      -1.537897       2.019768
H        -4.268520      -2.988472       2.344904
C        -2.750300       1.198748       1.798421
H        -2.464005       1.039537       0.767120
C        -4.913021      -2.467771       4.797673
H        -5.159841      -3.466719       4.454810
C        -5.174045      -2.185162       6.168409
C        -5.925804      -1.790354       8.824088
C        -5.545974      -3.268053       6.996013
C        -5.200909      -0.868444       6.707726
C        -5.607791      -0.702357       8.038224
C        -5.897491      -3.085971       8.307383
H        -5.544387      -4.259912       6.574436
H        -5.632092       0.299875       8.430997
H        -6.161689      -3.929878       8.930160
H        -6.210884      -1.637207       9.853684
C        -2.659976       2.534784       2.272545
C        -2.260886       5.177365       3.029445
C        -2.878460       2.906675       3.612970
C        -2.243554       3.523879       1.353327
C        -2.057132       4.825673       1.713832
C        -2.648094       4.241902       3.957202
H        -2.066708       3.230199       0.344971
H        -1.743407       5.568819       0.997036
H        -2.798837       4.506113       4.972390
H        -2.101974       6.198692       3.323341
O        -5.692899       0.995260       3.585731
H        -5.617579       1.895685       3.238263
H        -6.196679       1.070461       4.413870
>
40
PES calculation step 9
Ru       -2.489458      -0.402678       5.108093
N        -1.610109      -0.122027       5.891264
O        -3.565215       0.265759       4.579866
N        -4.506639      -1.556172       3.956485
O        -4.887779       0.261025       6.067703
O        -3.191643       2.103372       4.618806
N        -3.158689       0.221314       2.519088
C        -3.184567      -1.134342       1.966196
H        -2.288891      -1.654571       2.303345
H        -3.189374      -1.110462       0.875858
C        -4.428998      -1.835385       2.518543
H        -5.316657      -1.418717       2.047260
H        -4.400278      -2.906039       2.332412
C        -2.801659       1.257694       1.825594
H        -2.548542       1.105959       0.780713
C        -4.973138      -2.407241       4.811795
H        -5.246793      -3.397733       4.457109
C        -5.198053      -2.138088       6.195985
C        -5.891176      -1.761635       8.876086
C        -5.574481      -3.225255       7.015332
C        -5.189891      -0.826311       6.757113
C        -5.569781      -0.668385       8.098655
C        -5.896754      -3.052617       8.338276
H        -5.601354      -4.213224       6.578261
H        -5.567770       0.330773       8.506869
H        -6.164291      -3.900787       8.954203
H        -6.153041      -1.616355       9.914920
C        -2.675839       2.588194       2.318849
C        -2.191350       5.214967       3.120074
C        -2.825739       2.943986       3.685891
C        -2.282174       3.584885       1.396713
C        -2.056833       4.879439       1.778392
C        -2.550670       4.270916       4.052899
H        -2.155009       3.303941       0.368438
H        -1.763192       5.629120       1.057939
H        -2.647313       4.521607       5.088307
H        -1.998805       6.229941       3.429846
O        -5.704307       1.125379       3.659016
H        -5.612090       2.022294       3.304741
H        -6.198766       1.215569       4.491642
>
40
PES calculation step 10
N        -2.335161      -0.440026       5.235295
O        -1.523042      -0.116725       6.001910
Ru       -3.842359       0.319898       4.448305
N        -4.572790      -1.489965       3.973164
O        -4.868893       0.306142       6.125274
O        -3.108821       2.129973       4.696000
N        -3.203320       0.277582       2.545884
C        -3.270406      -1.073148       1.969480
H        -2.380506      -1.623237       2.288483
H        -3.290551      -1.033114       0.877940
C        -4.528667      -1.750941       2.526723
H        -5.416510      -1.299537       2.074753
H        -4.532036      -2.823606       2.319920
C        -2.853019       1.316639       1.852767
H        -2.633079       1.172381       0.794306
C        -5.033255      -2.346711       4.825917
H        -5.333745      -3.328747       4.459408
C        -5.222060      -2.091015       6.223562
C        -5.856547      -1.732916       8.928084
C        -5.602987      -3.182457       7.034651
C        -5.178873      -0.784178       6.806501
C        -5.531771      -0.634413       8.159086
C        -5.896016      -3.019263       8.369168
H        -5.658320      -4.166535       6.582086
H        -5.503448       0.361671       8.582742
H        -6.166894      -3.871695       8.978246
H        -6.095197      -1.595503       9.976156
C        -2.691701       2.641603       2.365153
C        -2.121814       5.252569       3.210704
C        -2.773018       2.981297       3.758813
C        -2.320794       3.645891       1.440100
C        -2.056535       4.933204       1.842952
C        -2.453246       4.299930       4.148596
H        -2.243311       3.377683       0.391905
H        -1.782977       5.689421       1.118843
H        -2.495789       4.537102       5.204223
H        -1.895637       6.261189       3.536351
O        -5.715715       1.255498       3.732301
H        -5.606601       2.148902       3.371219
H        -6.200852       1.360677       4.569415
